 Q-Chem 6.0 (devel), Q-Chem, Inc., Pleasanton, CA (2022)
 Q-Chem 6.0.0 for Intel X86 EM64T Linux

User input:
--------------------------------------------------------------
$molecule
0       1
N        0.0     0.0     0.545
N        0.0     0.0     -0.545
$end
$rem
   METHOD          eom-ccsd
   BASIS            gen
   jobtype    force
   GUI 2
   EA_STATES       [0,0,7,0,0,0,0,0]
   CC_TRANS_PROP 2
   CC_STATE_TO_OPT  [3, 1]
![3, 2] [3, 3] [3, 4]
   MEM_TOTAL 8000
!   CALC_NAC  2
   N_FROZEN_CORE 0
   complex_ccman 1
$end

$basis
N     0
S   10   1.00
      1.142000D+04           5.230000D-04
      1.712000D+03           4.045000D-03
      3.893000D+02           2.077500D-02
      1.100000D+02           8.072700D-02
      3.557000D+01           2.330740D-01
      1.254000D+01           4.335010D-01
      4.644000D+00           3.474720D-01
      1.293000D+00           4.126200D-02
      5.118000D-01          -8.508000D-03
      1.787000D-01           2.384000D-03
S   1   1.00
      1.293000D+00           1.000000D+00
S   10   1.00
      1.142000D+04          -1.150000D-04
      1.712000D+03          -8.950000D-04
      3.893000D+02          -4.624000D-03
      1.100000D+02          -1.852800D-02
      3.557000D+01          -5.733900D-02
      1.254000D+01          -1.320760D-01
      4.644000D+00          -1.725100D-01
      1.293000D+00           1.518140D-01
      5.118000D-01           5.999440D-01
      1.787000D-01           3.874620D-01
S   1   1.00
      1.787000D-01           1.000000D+00
S   1   1.00
      0.0576000              1.0000000
S   1   1.00
      0.0288000              1.0000000
S   1   1.00
      0.0144000              1.0000000
S   1   1.00
      0.0072000              1.0000000
P   1   1.00
      5.550000D-01           1.000000D+00
P   5   1.00
      2.663000D+01           1.467000D-02
      5.948000D+00           9.176400D-02
      1.742000D+00           2.986830D-01
      5.550000D-01           4.984870D-01
      1.725000D-01           3.370230D-01
P   1   1.00
      1.725000D-01           1.000000D+00
P   1   1.00
      0.0491000              1.0000000
P   1   1.00
      0.0245500              1.0000000
P   1   1.00
      0.0122750              1.0000000
P   1   1.00
      0.0061375              1.0000000
D   1   1.00
      1.654000D+00           1.000000D+00
D   1   1.00
      4.690000D-01           1.000000D+00
D   1   1.00
      0.1510000              1.0000000
D   1   1.00
      0.0755000              1.0000000
D   1   1.00
      0.0377500              1.0000000
D   1   1.00
      0.0188750              1.0000000
F   1   1.00
      1.093000D+00           1.0000000
F   1   1.00
      0.3640000              1.0000000
****
$end

$complex_ccman
CS_HF 1
!PROJ_CAP 1
ETA_STEP 10
NSTEPS 1
CAP_TYPE     1
CAP_X   2760
CAP_Y   2760
CAP_Z   4880
CAP_ETA 137
$end

--------------------------------------------------------------

             Standard Nuclear Orientation (Angstroms)
    I     Atom           X                Y                Z
 ----------------------------------------------------------------
    1      N       0.0000000000     0.0000000000     0.5450000000
    2      N       0.0000000000     0.0000000000    -0.5450000000
 ----------------------------------------------------------------

   10    -108.9862379280      5.64E-09 Convergence criterion met
 Total energy in the final basis set = -108.98623793
    6    -108.9862366644      3.05e-09      Convergence criterion met
 CCSD total energy          =             (-109.39376194 , -0.00008918)
           Solving for CS/CAP-EOMEA-CCSD B2g transitions.
 CS/CAP-EOMEA-CCSD transition 1/B2g
 Total energy = (-109.29803804 , -0.01003970) a.u.  Excitation energy =  (2.6048 , -0.2708) eV.
 CS/CAP-EOMEA-CCSD transition 2/B2g
 Total energy = (-109.31236578 , -0.05478950) a.u.  Excitation energy =  (2.2149 , -1.4885) eV.
 CS/CAP-EOMEA-CCSD transition 3/B2g
 Total energy = (-109.25229158 , -0.05302582) a.u.  Excitation energy =  (3.8496 , -1.4405) eV.
 CS/CAP-EOMEA-CCSD transition 4/B2g
 Total energy = (-109.32240767 , -0.18535559) a.u.  Excitation energy =  (1.9416 , -5.0414) eV.
 CS/CAP-EOMEA-CCSD transition 5/B2g
 Total energy = (-109.18496765 , -0.02853134) a.u.  Excitation energy =  (5.6816 , -0.7740) eV.
 CS/CAP-EOMEA-CCSD transition 6/B2g
 Total energy = (-109.08271785 , -0.02998381) a.u.  Excitation energy =  (8.4639 , -0.8135) eV.
 CS/CAP-EOMEA-CCSD transition 7/B2g
 Total energy = (-108.95699818 , -0.03770602) a.u.  Excitation energy =  (11.8849 , -1.0236) eV.
 Excited state properties for EOMEA-CCSD transition 1/B2g
 Excited state properties for EOMEA-CCSD transition 2/B2g
 Excited state properties for EOMEA-CCSD transition 3/B2g
 Excited state properties for EOMEA-CCSD transition 4/B2g
 Excited state properties for EOMEA-CCSD transition 5/B2g
 Excited state properties for EOMEA-CCSD transition 6/B2g
 Excited state properties for EOMEA-CCSD transition 7/B2g

             Orbital Energies (a.u.) and Symmetries
 --------------------------------------------------------------

 Alpha MOs, Unrestricted
 -- Occupied --
-15.682  -1.478  -0.635 -15.679  -0.777  -0.618  -0.618
  1 Ag    2 Ag    3 Ag    1 B1u   2 B1u   1 B2u   1 B3u

 Beta MOs, Unrestricted
 -- Occupied --
-15.682  -1.478  -0.635 -15.679  -0.777  -0.618  -0.618
  1 Ag    2 Ag    3 Ag    1 B1u   2 B1u   1 B2u   1 B3u

          Ground-State Mulliken Net Atomic Charges

     Atom                 Charge (a.u.)    Spin (a.u.)
  --------------------------------------------------------
      1 N                    -0.500000      -0.500000
      2 N                    -0.500000      -0.500000
  --------------------------------------------------------
  Sum of atomic charges =    -1.000000

                    Cartesian Multipole Moments
 -----------------------------------------------------------------
    Charge (ESU x 10^10)
                -4.8032
    Dipole Moment (Debye)
         X       0.0000      Y       0.0000      Z       0.0000
       Tot       0.0000
    Quadrupole Moments (Debye-Ang)
        XX     -11.7575     XY       0.0000     YY     -11.8368
        XZ       0.0000     YZ       0.0000     ZZ     -18.4320

 Total job time:  1393.01s(wall), 9666.40s(cpu)
        *  Thank you very much for using Q-Chem.  Have a nice day.  *
