 Q-Chem 6.0 (devel), Q-Chem, Inc., Pleasanton, CA (2022)
 Q-Chem 6.0.0 for Intel X86 EM64T Linux

User input:
--------------------------------------------------------------
$molecule
0       1
N        0.0     0.0     0.545
N        0.0     0.0     -0.545
$end
$rem
   METHOD          eom-ccsd
   BASIS            gen
   XC_GRID         000099000590
   GUI 2
   EA_STATES       [0,0,7,0,0,0,0,0]
   CC_TRANS_PROP 2
   CALC_NAC  2
   N_FROZEN_CORE 0
   complex_ccman 1
$end

$basis
N     0
S   10   1.00
      1.142000D+04           5.230000D-04
      1.712000D+03           4.045000D-03
      3.893000D+02           2.077500D-02
      1.100000D+02           8.072700D-02
      3.557000D+01           2.330740D-01
      1.254000D+01           4.335010D-01
      4.644000D+00           3.474720D-01
      1.293000D+00           4.126200D-02
      5.118000D-01          -8.508000D-03
      1.787000D-01           2.384000D-03
S   1   1.00
      1.293000D+00           1.000000D+00
S   10   1.00
      1.142000D+04          -1.150000D-04
      1.712000D+03          -8.950000D-04
      3.893000D+02          -4.624000D-03
      1.100000D+02          -1.852800D-02
      3.557000D+01          -5.733900D-02
      1.254000D+01          -1.320760D-01
      4.644000D+00          -1.725100D-01
      1.293000D+00           1.518140D-01
      5.118000D-01           5.999440D-01
      1.787000D-01           3.874620D-01
S   1   1.00
      1.787000D-01           1.000000D+00
S   1   1.00
      0.0576000              1.0000000
S   1   1.00
      0.0288000              1.0000000
S   1   1.00
      0.0144000              1.0000000
S   1   1.00
      0.0072000              1.0000000
P   1   1.00
      5.550000D-01           1.000000D+00
P   5   1.00
      2.663000D+01           1.467000D-02
      5.948000D+00           9.176400D-02
      1.742000D+00           2.986830D-01
      5.550000D-01           4.984870D-01
      1.725000D-01           3.370230D-01
P   1   1.00
      1.725000D-01           1.000000D+00
P   1   1.00
      0.0491000              1.0000000
P   1   1.00
      0.0245500              1.0000000
P   1   1.00
      0.0122750              1.0000000
P   1   1.00
      0.0061375              1.0000000
D   1   1.00
      1.654000D+00           1.000000D+00
D   1   1.00
      4.690000D-01           1.000000D+00
D   1   1.00
      0.1510000              1.0000000
D   1   1.00
      0.0755000              1.0000000
D   1   1.00
      0.0377500              1.0000000
D   1   1.00
      0.0188750              1.0000000
F   1   1.00
      1.093000D+00           1.0000000
F   1   1.00
      0.3640000              1.0000000
****
$end

$complex_ccman
PROJ_CAP 3
ETA_STEP 10
NSTEPS 1
CAP_TYPE     1
CAP_X   2760
CAP_Y   2760
CAP_Z   4880
CAP_ETA 137
$end

--------------------------------------------------------------

             Standard Nuclear Orientation (Angstroms)
    I     Atom           X                Y                Z
 ----------------------------------------------------------------
    1      N       0.0000000000     0.0000000000     0.5450000000
    2      N       0.0000000000     0.0000000000    -0.5450000000
 ----------------------------------------------------------------

    9    -108.9862381408      2.75e-09  Convergence criterion met
 Total energy in the final basis set =     -108.9862381408
 CCSD total energy          = -109.39376353
        Solving for EOMEA-CCSD/MP2 B2g transitions.
 EOMEA transition 1/B2g
 Total energy = -109.37765067 a.u.  Excitation energy = 0.4385 eV.
 EOMEA transition 2/B2g
 Total energy = -109.34963478 a.u.  Excitation energy = 1.2008 eV.
 EOMEA transition 3/B2g
 Total energy = -109.31074178 a.u.  Excitation energy = 2.2591 eV.
 EOMEA transition 4/B2g
 Total energy = -109.28513168 a.u.  Excitation energy = 2.9560 eV.
 EOMEA transition 5/B2g
 Total energy = -109.23768329 a.u.  Excitation energy = 4.2472 eV.
 EOMEA transition 6/B2g
 Total energy = -109.17629961 a.u.  Excitation energy = 5.9175 eV.
 EOMEA transition 7/B2g
 Total energy = -109.07327714 a.u.  Excitation energy = 8.7209 eV.
 Excited state properties for  EOMEA-CCSD transition 1/B2g
 Excited state properties for  EOMEA-CCSD transition 2/B2g
 Excited state properties for  EOMEA-CCSD transition 3/B2g
 Excited state properties for  EOMEA-CCSD transition 4/B2g
 Excited state properties for  EOMEA-CCSD transition 5/B2g
 Excited state properties for  EOMEA-CCSD transition 6/B2g
 Excited state properties for  EOMEA-CCSD transition 7/B2g

             Orbital Energies (a.u.) and Symmetries
 --------------------------------------------------------------

 Alpha MOs, Restricted
 -- Occupied --
-15.682  -1.478  -0.635 -15.679  -0.777  -0.618  -0.618
  1 Ag    2 Ag    3 Ag    1 B1u   2 B1u   1 B2u   1 B3u

 Beta MOs, Restricted
 -- Occupied --
-15.682  -1.478  -0.635 -15.679  -0.777  -0.618  -0.618
  1 Ag    2 Ag    3 Ag    1 B1u   2 B1u   1 B2u   1 B3u

          Ground-State Mulliken Net Atomic Charges

     Atom                 Charge (a.u.)
  ----------------------------------------
      1 N                    -0.000000
      2 N                     0.000000
  ----------------------------------------
  Sum of atomic charges =     0.000000

                    Cartesian Multipole Moments
 -----------------------------------------------------------------
    Charge (ESU x 10^10)
                 0.0000
    Dipole Moment (Debye)
         X      -0.0000      Y       0.0000      Z      -0.0000
       Tot       0.0000
    Quadrupole Moments (Debye-Ang)
        XX     -10.3692     XY      -0.0000     YY     -10.3692
        XZ      -0.0000     YZ       0.0000     ZZ     -11.6389

 Total job time:  6532.28s(wall), 33375.26s(cpu)
        *  Thank you very much for using Q-Chem.  Have a nice day.  *
